TITLE = vY-vT
Variables = "x [m]", "y [m]","Residuals [K]"
ZONE, i= 24, j= 24, f=point, STRANDID=  1,SOLUTIONTIME=  2.000000E-02
  2.500000E-03   2.500000E-03  -2.493960E+03
  2.500000E-03   7.500000E-03   4.975773E+03
  2.500000E-03   1.250000E-02  -4.488230E+02
  2.500000E-03   1.750000E-02   3.801035E+02
  2.500000E-03   2.250000E-02  -1.688955E+03
  2.500000E-03   2.750000E-02  -3.063852E+03
  2.500000E-03   3.250000E-02   5.270058E+03
  2.500000E-03   3.750000E-02  -8.273095E+03
  2.500000E-03   4.250000E-02   2.306133E+02
  2.500000E-03   4.750000E-02   2.228277E+03
  2.500000E-03   5.250000E-02   2.426448E+03
  2.500000E-03   5.750000E-02  -2.238901E+02
  2.500000E-03   6.250000E-02   1.069167E+03
  2.500000E-03   6.750000E-02   2.920455E+03
  2.500000E-03   7.250000E-02   5.939474E+03
  2.500000E-03   7.750000E-02  -1.822364E+03
  2.500000E-03   8.250000E-02   6.897955E+03
  2.500000E-03   8.750000E-02  -2.251275E+03
  2.500000E-03   9.250000E-02  -7.494830E+03
  2.500000E-03   9.750000E-02   3.445523E+03
  2.500000E-03   1.025000E-01   3.722614E+03
  2.500000E-03   1.075000E-01   5.546059E+03
  2.500000E-03   1.125000E-01   9.584131E+02
  2.500000E-03   1.175000E-01   1.538945E+03
  7.500000E-03   2.500000E-03   4.593171E+03
  7.500000E-03   7.500000E-03  -3.316499E+03
  7.500000E-03   1.250000E-02   2.042553E+03
  7.500000E-03   1.750000E-02  -5.745209E+03
  7.500000E-03   2.250000E-02  -2.825917E+02
  7.500000E-03   2.750000E-02  -4.660657E+03
  7.500000E-03   3.250000E-02   2.687501E+03
  7.500000E-03   3.750000E-02   5.471134E+03
  7.500000E-03   4.250000E-02  -8.781341E+01
  7.500000E-03   4.750000E-02   8.218046E+03
  7.500000E-03   5.250000E-02   1.911335E+03
  7.500000E-03   5.750000E-02  -7.841868E+03
  7.500000E-03   6.250000E-02   9.465894E+03
  7.500000E-03   6.750000E-02  -4.520526E+03
  7.500000E-03   7.250000E-02   3.986982E+03
  7.500000E-03   7.750000E-02   2.190491E+03
  7.500000E-03   8.250000E-02   1.484872E+03
  7.500000E-03   8.750000E-02   6.914082E+03
  7.500000E-03   9.250000E-02   1.198388E+03
  7.500000E-03   9.750000E-02  -2.822492E+03
  7.500000E-03   1.025000E-01   2.126077E+03
  7.500000E-03   1.075000E-01   1.589063E+03
  7.500000E-03   1.125000E-01  -5.625906E+03
  7.500000E-03   1.175000E-01   9.293167E+03
  1.250000E-02   2.500000E-03  -8.201861E+03
  1.250000E-02   7.500000E-03   9.350204E+02
  1.250000E-02   1.250000E-02   4.099801E+03
  1.250000E-02   1.750000E-02  -8.622088E+03
  1.250000E-02   2.250000E-02   3.942681E+03
  1.250000E-02   2.750000E-02  -9.717635E+03
  1.250000E-02   3.250000E-02   2.809407E+03
  1.250000E-02   3.750000E-02   9.349213E+02
  1.250000E-02   4.250000E-02   2.183643E+03
  1.250000E-02   4.750000E-02  -1.410899E+03
  1.250000E-02   5.250000E-02   2.161351E+03
  1.250000E-02   5.750000E-02   3.476861E+03
  1.250000E-02   6.250000E-02   5.901820E+03
  1.250000E-02   6.750000E-02  -1.645658E+03
  1.250000E-02   7.250000E-02  -3.419168E+03
  1.250000E-02   7.750000E-02  -4.471875E+03
  1.250000E-02   8.250000E-02   3.492545E+02
  1.250000E-02   8.750000E-02  -2.327079E+03
  1.250000E-02   9.250000E-02   1.060358E+04
  1.250000E-02   9.750000E-02  -8.967819E+01
  1.250000E-02   1.025000E-01   1.120591E+03
  1.250000E-02   1.075000E-01  -2.710000E+03
  1.250000E-02   1.125000E-01   2.219676E+03
  1.250000E-02   1.175000E-01  -3.022392E+03
  1.750000E-02   2.500000E-03   3.998639E+02
  1.750000E-02   7.500000E-03   1.726029E+03
  1.750000E-02   1.250000E-02  -3.560718E+03
  1.750000E-02   1.750000E-02  -2.061875E+03
  1.750000E-02   2.250000E-02   7.610263E+03
  1.750000E-02   2.750000E-02   2.206740E+03
  1.750000E-02   3.250000E-02  -8.266672E+03
  1.750000E-02   3.750000E-02  -2.965290E+02
  1.750000E-02   4.250000E-02  -6.926758E+03
  1.750000E-02   4.750000E-02   3.413841E+03
  1.750000E-02   5.250000E-02   3.094768E+03
  1.750000E-02   5.750000E-02  -1.187640E+02
  1.750000E-02   6.250000E-02  -4.444178E+03
  1.750000E-02   6.750000E-02  -1.356923E+03
  1.750000E-02   7.250000E-02   1.214477E+03
  1.750000E-02   7.750000E-02  -1.961058E+03
  1.750000E-02   8.250000E-02   1.717026E+03
  1.750000E-02   8.750000E-02   5.308366E+03
  1.750000E-02   9.250000E-02  -7.260609E+03
  1.750000E-02   9.750000E-02   1.282967E+01
  1.750000E-02   1.025000E-01  -2.314326E+03
  1.750000E-02   1.075000E-01   7.323212E+03
  1.750000E-02   1.125000E-01   3.218281E+03
  1.750000E-02   1.175000E-01   1.481950E+03
  2.250000E-02   2.500000E-03   5.548639E+02
  2.250000E-02   7.500000E-03   4.083460E+04
  2.250000E-02   1.250000E-02   3.776764E+04
  2.250000E-02   1.750000E-02   3.042740E+04
  2.250000E-02   2.250000E-02   3.436528E+04
  2.250000E-02   2.750000E-02   3.505237E+04
  2.250000E-02   3.250000E-02   4.329475E+04
  2.250000E-02   3.750000E-02   3.859547E+04
  2.250000E-02   4.250000E-02   4.721874E+03
  2.250000E-02   4.750000E-02  -1.192253E+03
  2.250000E-02   5.250000E-02   8.155270E+02
  2.250000E-02   5.750000E-02  -2.026668E+02
  2.250000E-02   6.250000E-02  -2.862003E+03
  2.250000E-02   6.750000E-02  -3.778181E+03
  2.250000E-02   7.250000E-02  -5.633512E+03
  2.250000E-02   7.750000E-02   3.384836E+03
  2.250000E-02   8.250000E-02  -1.062884E+03
  2.250000E-02   8.750000E-02  -8.789349E+02
  2.250000E-02   9.250000E-02   3.731518E+03
  2.250000E-02   9.750000E-02  -2.256531E+03
  2.250000E-02   1.025000E-01   4.561100E+03
  2.250000E-02   1.075000E-01  -3.681463E+03
  2.250000E-02   1.125000E-01  -4.560763E+03
  2.250000E-02   1.175000E-01   2.458992E+03
  2.750000E-02   2.500000E-03  -4.502772E+04
  2.750000E-02   7.500000E-03  -1.001512E+07
  2.750000E-02   1.250000E-02  -1.002050E+07
  2.750000E-02   1.750000E-02  -1.001945E+07
  2.750000E-02   2.250000E-02  -1.001528E+07
  2.750000E-02   2.750000E-02  -1.002182E+07
  2.750000E-02   3.250000E-02  -1.002331E+07
  2.750000E-02   3.750000E-02  -1.001323E+07
  2.750000E-02   4.250000E-02   4.010210E+02
  2.750000E-02   4.750000E-02   3.042665E+03
  2.750000E-02   5.250000E-02  -1.511204E+02
  2.750000E-02   5.750000E-02  -1.201780E+03
  2.750000E-02   6.250000E-02   3.701253E+03
  2.750000E-02   6.750000E-02  -4.189199E+03
  2.750000E-02   7.250000E-02   8.557304E+02
  2.750000E-02   7.750000E-02   2.137937E+03
  2.750000E-02   8.250000E-02   4.541819E+02
  2.750000E-02   8.750000E-02   1.686370E+03
  2.750000E-02   9.250000E-02  -2.680803E+03
  2.750000E-02   9.750000E-02   5.736188E+02
  2.750000E-02   1.025000E-01  -2.996116E+03
  2.750000E-02   1.075000E-01   2.918885E+02
  2.750000E-02   1.125000E-01   1.446024E+03
  2.750000E-02   1.175000E-01  -9.024914E+01
  3.250000E-02   2.500000E-03   2.739679E+03
  3.250000E-02   7.500000E-03   5.253318E+03
  3.250000E-02   1.250000E-02   3.590416E+03
  3.250000E-02   1.750000E-02   2.871213E+03
  3.250000E-02   2.250000E-02  -2.174856E+03
  3.250000E-02   2.750000E-02  -1.395928E+02
  3.250000E-02   3.250000E-02  -3.024245E+02
  3.250000E-02   3.750000E-02  -5.060985E+02
  3.250000E-02   4.250000E-02   5.121597E+03
  3.250000E-02   4.750000E-02  -8.214209E+03
  3.250000E-02   5.250000E-02   2.378457E+03
  3.250000E-02   5.750000E-02   3.110509E+02
  3.250000E-02   6.250000E-02   2.412509E+03
  3.250000E-02   6.750000E-02  -1.440615E+03
  3.250000E-02   7.250000E-02   3.761240E+03
  3.250000E-02   7.750000E-02  -4.157447E+03
  3.250000E-02   8.250000E-02   2.410209E+03
  3.250000E-02   8.750000E-02  -8.894734E+02
  3.250000E-02   9.250000E-02   5.936964E+03
  3.250000E-02   9.750000E-02  -5.696455E+02
  3.250000E-02   1.025000E-01  -8.701521E+02
  3.250000E-02   1.075000E-01   4.120694E+03
  3.250000E-02   1.125000E-01  -2.299162E+03
  3.250000E-02   1.175000E-01   3.518036E+03
  3.750000E-02   2.500000E-03  -3.576810E+03
  3.750000E-02   7.500000E-03   9.171454E+02
  3.750000E-02   1.250000E-02  -1.693685E+03
  3.750000E-02   1.750000E-02  -6.564518E+03
  3.750000E-02   2.250000E-02   3.212439E+03
  3.750000E-02   2.750000E-02   2.792729E+03
  3.750000E-02   3.250000E-02   4.966327E+03
  3.750000E-02   3.750000E-02  -2.371384E+03
  3.750000E-02   4.250000E-02  -5.332314E+03
  3.750000E-02   4.750000E-02   3.827163E+03
  3.750000E-02   5.250000E-02   2.860305E+02
  3.750000E-02   5.750000E-02   2.582773E+03
  3.750000E-02   6.250000E-02   4.672430E+02
  3.750000E-02   6.750000E-02  -6.083855E+02
  3.750000E-02   7.250000E-02   2.222166E+03
  3.750000E-02   7.750000E-02   3.509015E+03
  3.750000E-02   8.250000E-02  -9.903211E+02
  3.750000E-02   8.750000E-02   2.431463E+03
  3.750000E-02   9.250000E-02  -1.991591E+03
  3.750000E-02   9.750000E-02   1.610331E+03
  3.750000E-02   1.025000E-01   1.710660E+03
  3.750000E-02   1.075000E-01   7.166374E+02
  3.750000E-02   1.125000E-01   1.500651E+03
  3.750000E-02   1.175000E-01  -1.924831E+03
  4.250000E-02   2.500000E-03   4.039802E+03
  4.250000E-02   7.500000E-03   1.485529E+03
  4.250000E-02   1.250000E-02   4.462934E+03
  4.250000E-02   1.750000E-02   1.051009E+03
  4.250000E-02   2.250000E-02  -3.252245E+03
  4.250000E-02   2.750000E-02  -4.411356E+03
  4.250000E-02   3.250000E-02  -4.462042E+02
  4.250000E-02   3.750000E-02  -3.098826E+03
  4.250000E-02   4.250000E-02   1.328917E+03
  4.250000E-02   4.750000E-02  -2.923067E+03
  4.250000E-02   5.250000E-02   3.242314E+03
  4.250000E-02   5.750000E-02   2.325816E+03
  4.250000E-02   6.250000E-02  -2.754189E+03
  4.250000E-02   6.750000E-02  -4.920829E+02
  4.250000E-02   7.250000E-02  -2.988063E+02
  4.250000E-02   7.750000E-02   1.035830E+03
  4.250000E-02   8.250000E-02   5.581830E+02
  4.250000E-02   8.750000E-02  -3.788830E+03
  4.250000E-02   9.250000E-02  -1.087388E+03
  4.250000E-02   9.750000E-02   4.145537E+02
  4.250000E-02   1.025000E-01  -5.043799E+03
  4.250000E-02   1.075000E-01   3.479264E+03
  4.250000E-02   1.125000E-01   1.025311E+02
  4.250000E-02   1.175000E-01   1.772435E+03
  4.750000E-02   2.500000E-03  -5.005453E+03
  4.750000E-02   7.500000E-03  -2.137517E+03
  4.750000E-02   1.250000E-02  -3.325901E+03
  4.750000E-02   1.750000E-02   3.127075E+03
  4.750000E-02   2.250000E-02   4.476696E+02
  4.750000E-02   2.750000E-02  -3.435215E+03
  4.750000E-02   3.250000E-02   9.024136E+02
  4.750000E-02   3.750000E-02  -1.507383E+03
  4.750000E-02   4.250000E-02   5.577091E+03
  4.750000E-02   4.750000E-02   1.732960E+03
  4.750000E-02   5.250000E-02  -9.812875E+01
  4.750000E-02   5.750000E-02   4.387003E+03
  4.750000E-02   6.250000E-02  -1.504928E+02
  4.750000E-02   6.750000E-02   4.764519E+03
  4.750000E-02   7.250000E-02   5.545244E+02
  4.750000E-02   7.750000E-02  -3.412623E+02
  4.750000E-02   8.250000E-02   1.505286E+03
  4.750000E-02   8.750000E-02   1.905934E+03
  4.750000E-02   9.250000E-02  -5.292195E+02
  4.750000E-02   9.750000E-02   3.085880E+03
  4.750000E-02   1.025000E-01   1.832845E+03
  4.750000E-02   1.075000E-01  -4.730459E+03
  4.750000E-02   1.125000E-01   3.807393E+03
  4.750000E-02   1.175000E-01  -1.440196E+03
  5.250000E-02   2.500000E-03   3.573717E+03
  5.250000E-02   7.500000E-03   4.805194E+02
  5.250000E-02   1.250000E-02  -3.237548E+02
  5.250000E-02   1.750000E-02   3.469905E+03
  5.250000E-02   2.250000E-02   2.222068E+03
  5.250000E-02   2.750000E-02   4.463182E+03
  5.250000E-02   3.250000E-02  -5.876735E+03
  5.250000E-02   3.750000E-02   3.398644E+03
  5.250000E-02   4.250000E-02  -3.100399E+03
  5.250000E-02   4.750000E-02  -1.473223E+03
  5.250000E-02   5.250000E-02  -1.304039E+03
  5.250000E-02   5.750000E-02  -1.819754E+03
  5.250000E-02   6.250000E-02   2.267410E+03
  5.250000E-02   6.750000E-02   1.665235E+03
  5.250000E-02   7.250000E-02  -5.318506E+03
  5.250000E-02   7.750000E-02   4.920661E+03
  5.250000E-02   8.250000E-02  -1.640770E+03
  5.250000E-02   8.750000E-02   1.056709E+03
  5.250000E-02   9.250000E-02  -2.913685E+03
  5.250000E-02   9.750000E-02  -5.207512E+01
  5.250000E-02   1.025000E-01   2.640288E+02
  5.250000E-02   1.075000E-01  -2.272011E+02
  5.250000E-02   1.125000E-01   1.722534E+03
  5.250000E-02   1.175000E-01   1.595882E+03
  5.750000E-02   2.500000E-03  -3.042415E+03
  5.750000E-02   7.500000E-03   4.468613E+03
  5.750000E-02   1.250000E-02  -2.141898E+03
  5.750000E-02   1.750000E-02   1.988053E+03
  5.750000E-02   2.250000E-02  -4.483682E+03
  5.750000E-02   2.750000E-02  -1.340885E+01
  5.750000E-02   3.250000E-02  -9.825136E+02
  5.750000E-02   3.750000E-02  -3.897086E+03
  5.750000E-02   4.250000E-02   6.602669E+03
  5.750000E-02   4.750000E-02   6.554047E+02
  5.750000E-02   5.250000E-02   1.520852E+03
  5.750000E-02   5.750000E-02   3.367208E+03
  5.750000E-02   6.250000E-02  -1.606551E+03
  5.750000E-02   6.750000E-02   1.323159E+03
  5.750000E-02   7.250000E-02   2.277714E+02
  5.750000E-02   7.750000E-02  -3.244212E+02
  5.750000E-02   8.250000E-02  -1.966987E+02
  5.750000E-02   8.750000E-02  -6.432384E+02
  5.750000E-02   9.250000E-02   2.736916E+03
  5.750000E-02   9.750000E-02  -4.635475E+03
  5.750000E-02   1.025000E-01  -1.226170E+03
  5.750000E-02   1.075000E-01  -1.175663E+03
  5.750000E-02   1.125000E-01  -9.688225E+02
  5.750000E-02   1.175000E-01  -1.732503E+03
  6.250000E-02   2.500000E-03  -1.481677E+03
  6.250000E-02   7.500000E-03  -6.518263E+02
  6.250000E-02   1.250000E-02   2.119690E+02
  6.250000E-02   1.750000E-02   8.479503E+02
  6.250000E-02   2.250000E-02  -3.888871E+02
  6.250000E-02   2.750000E-02   7.014431E+03
  6.250000E-02   3.250000E-02  -1.652350E+03
  6.250000E-02   3.750000E-02   3.059553E+03
  6.250000E-02   4.250000E-02   2.312719E+02
  6.250000E-02   4.750000E-02  -2.811553E+03
  6.250000E-02   5.250000E-02   1.245055E+03
  6.250000E-02   5.750000E-02  -2.732322E+03
  6.250000E-02   6.250000E-02   3.326816E+02
  6.250000E-02   6.750000E-02   4.175713E+03
  6.250000E-02   7.250000E-02  -3.382700E+02
  6.250000E-02   7.750000E-02   2.211378E+03
  6.250000E-02   8.250000E-02  -1.819425E+03
  6.250000E-02   8.750000E-02  -1.146824E+03
  6.250000E-02   9.250000E-02  -7.208123E+02
  6.250000E-02   9.750000E-02   1.390442E+03
  6.250000E-02   1.025000E-01   4.306789E+03
  6.250000E-02   1.075000E-01  -3.578883E+03
  6.250000E-02   1.125000E-01   3.772847E+03
  6.250000E-02   1.175000E-01  -2.860246E+03
  6.750000E-02   2.500000E-03   2.981971E+03
  6.750000E-02   7.500000E-03   3.243924E+01
  6.750000E-02   1.250000E-02  -3.147904E+03
  6.750000E-02   1.750000E-02   2.288900E+03
  6.750000E-02   2.250000E-02  -2.649547E+03
  6.750000E-02   2.750000E-02  -5.963694E+02
  6.750000E-02   3.250000E-02  -1.501511E+02
  6.750000E-02   3.750000E-02  -3.389207E+03
  6.750000E-02   4.250000E-02  -1.095723E+03
  6.750000E-02   4.750000E-02   3.409413E+03
  6.750000E-02   5.250000E-02   2.991760E+03
  6.750000E-02   5.750000E-02  -2.870936E+03
  6.750000E-02   6.250000E-02   5.544204E+03
  6.750000E-02   6.750000E-02  -2.137586E+03
  6.750000E-02   7.250000E-02   1.839427E+03
  6.750000E-02   7.750000E-02  -8.418914E+03
  6.750000E-02   8.250000E-02   4.149028E+03
  6.750000E-02   8.750000E-02   2.689051E+03
  6.750000E-02   9.250000E-02   1.835294E+02
  6.750000E-02   9.750000E-02  -3.079549E+02
  6.750000E-02   1.025000E-01  -4.508914E+03
  6.750000E-02   1.075000E-01   3.133234E+03
  6.750000E-02   1.125000E-01  -4.193944E+03
  6.750000E-02   1.175000E-01   1.556083E+03
  7.250000E-02   2.500000E-03  -3.016533E+02
  7.250000E-02   7.500000E-03  -4.128184E+03
  7.250000E-02   1.250000E-02   3.531173E+03
  7.250000E-02   1.750000E-02   8.967887E+02
  7.250000E-02   2.250000E-02   2.781289E+02
  7.250000E-02   2.750000E-02  -2.091662E+03
  7.250000E-02   3.250000E-02   4.395649E+03
  7.250000E-02   3.750000E-02  -2.938379E+03
  7.250000E-02   4.250000E-02   2.904012E+03
  7.250000E-02   4.750000E-02   4.083209E+04
  7.250000E-02   5.250000E-02   3.396129E+04
  7.250000E-02   5.750000E-02   3.640030E+04
  7.250000E-02   6.250000E-02   3.817417E+04
  7.250000E-02   6.750000E-02   3.833427E+04
  7.250000E-02   7.250000E-02   3.866019E+04
  7.250000E-02   7.750000E-02   4.380137E+04
  7.250000E-02   8.250000E-02  -2.346631E+03
  7.250000E-02   8.750000E-02   7.814831E+02
  7.250000E-02   9.250000E-02  -1.034718E+03
  7.250000E-02   9.750000E-02   2.490983E+03
  7.250000E-02   1.025000E-01   3.904762E+03
  7.250000E-02   1.075000E-01  -1.459550E+03
  7.250000E-02   1.125000E-01   2.184434E+03
  7.250000E-02   1.175000E-01   4.350533E+03
  7.750000E-02   2.500000E-03  -1.886455E+03
  7.750000E-02   7.500000E-03   7.432035E+02
  7.750000E-02   1.250000E-02  -1.820652E+03
  7.750000E-02   1.750000E-02   2.256909E+03
  7.750000E-02   2.250000E-02  -1.803485E+03
  7.750000E-02   2.750000E-02   1.311887E+03
  7.750000E-02   3.250000E-02   2.182278E+03
  7.750000E-02   3.750000E-02   2.213244E+03
  7.750000E-02   4.250000E-02   3.855081E+04
  7.750000E-02   4.750000E-02  -1.005964E+07
  7.750000E-02   5.250000E-02  -1.001344E+07
  7.750000E-02   5.750000E-02  -1.001432E+07
  7.750000E-02   6.250000E-02  -1.001843E+07
  7.750000E-02   6.750000E-02  -1.001666E+07
  7.750000E-02   7.250000E-02  -1.001229E+07
  7.750000E-02   7.750000E-02  -1.006023E+07
  7.750000E-02   8.250000E-02   4.127564E+04
  7.750000E-02   8.750000E-02  -7.049662E+02
  7.750000E-02   9.250000E-02   1.732259E+03
  7.750000E-02   9.750000E-02   2.234667E+03
  7.750000E-02   1.025000E-01  -1.019075E+03
  7.750000E-02   1.075000E-01  -2.490324E+02
  7.750000E-02   1.125000E-01  -8.466541E+02
  7.750000E-02   1.175000E-01  -1.837535E+03
  8.250000E-02   2.500000E-03   2.999834E+02
  8.250000E-02   7.500000E-03   3.000022E+02
  8.250000E-02   1.250000E-02   2.999886E+02
  8.250000E-02   1.750000E-02   3.000023E+02
  8.250000E-02   2.250000E-02   2.999970E+02
  8.250000E-02   2.750000E-02   2.999772E+02
  8.250000E-02   3.250000E-02   3.000104E+02
  8.250000E-02   3.750000E-02   2.999949E+02
  8.250000E-02   4.250000E-02   3.000016E+02
  8.250000E-02   4.750000E-02   2.999933E+02
  8.250000E-02   5.250000E-02   3.000026E+02
  8.250000E-02   5.750000E-02   3.000019E+02
  8.250000E-02   6.250000E-02   3.000113E+02
  8.250000E-02   6.750000E-02   2.999889E+02
  8.250000E-02   7.250000E-02   2.999986E+02
  8.250000E-02   7.750000E-02   2.999991E+02
  8.250000E-02   8.250000E-02   3.000066E+02
  8.250000E-02   8.750000E-02   2.999967E+02
  8.250000E-02   9.250000E-02   3.000198E+02
  8.250000E-02   9.750000E-02   3.000036E+02
  8.250000E-02   1.025000E-01   3.000092E+02
  8.250000E-02   1.075000E-01   2.999941E+02
  8.250000E-02   1.125000E-01   3.000069E+02
  8.250000E-02   1.175000E-01   2.999931E+02
  8.750000E-02   2.500000E-03   3.000059E+02
  8.750000E-02   7.500000E-03   2.999859E+02
  8.750000E-02   1.250000E-02   2.999938E+02
  8.750000E-02   1.750000E-02   2.999866E+02
  8.750000E-02   2.250000E-02   3.000112E+02
  8.750000E-02   2.750000E-02   2.999929E+02
  8.750000E-02   3.250000E-02   2.999954E+02
  8.750000E-02   3.750000E-02   2.999942E+02
  8.750000E-02   4.250000E-02   3.000106E+02
  8.750000E-02   4.750000E-02   3.000150E+02
  8.750000E-02   5.250000E-02   3.000020E+02
  8.750000E-02   5.750000E-02   2.999919E+02
  8.750000E-02   6.250000E-02   2.999960E+02
  8.750000E-02   6.750000E-02   2.999814E+02
  8.750000E-02   7.250000E-02   2.999887E+02
  8.750000E-02   7.750000E-02   2.999843E+02
  8.750000E-02   8.250000E-02   3.000135E+02
  8.750000E-02   8.750000E-02   2.999742E+02
  8.750000E-02   9.250000E-02   3.000012E+02
  8.750000E-02   9.750000E-02   3.000001E+02
  8.750000E-02   1.025000E-01   3.000011E+02
  8.750000E-02   1.075000E-01   3.000081E+02
  8.750000E-02   1.125000E-01   2.999929E+02
  8.750000E-02   1.175000E-01   3.000034E+02
  9.250000E-02   2.500000E-03   2.999962E+02
  9.250000E-02   7.500000E-03   3.000034E+02
  9.250000E-02   1.250000E-02   2.999908E+02
  9.250000E-02   1.750000E-02   3.000138E+02
  9.250000E-02   2.250000E-02   2.999942E+02
  9.250000E-02   2.750000E-02   3.000103E+02
  9.250000E-02   3.250000E-02   2.999903E+02
  9.250000E-02   3.750000E-02   2.999953E+02
  9.250000E-02   4.250000E-02   2.999907E+02
  9.250000E-02   4.750000E-02   3.000129E+02
  9.250000E-02   5.250000E-02   3.000257E+02
  9.250000E-02   5.750000E-02   2.999897E+02
  9.250000E-02   6.250000E-02   2.999973E+02
  9.250000E-02   6.750000E-02   2.999923E+02
  9.250000E-02   7.250000E-02   3.000098E+02
  9.250000E-02   7.750000E-02   3.000060E+02
  9.250000E-02   8.250000E-02   3.000158E+02
  9.250000E-02   8.750000E-02   3.000038E+02
  9.250000E-02   9.250000E-02   2.999983E+02
  9.250000E-02   9.750000E-02   3.000070E+02
  9.250000E-02   1.025000E-01   2.999799E+02
  9.250000E-02   1.075000E-01   3.000101E+02
  9.250000E-02   1.125000E-01   3.000004E+02
  9.250000E-02   1.175000E-01   2.999631E+02
  9.750000E-02   2.500000E-03   3.000126E+02
  9.750000E-02   7.500000E-03   3.000022E+02
  9.750000E-02   1.250000E-02   2.999936E+02
  9.750000E-02   1.750000E-02   3.000051E+02
  9.750000E-02   2.250000E-02   3.000058E+02
  9.750000E-02   2.750000E-02   2.999931E+02
  9.750000E-02   3.250000E-02   3.000149E+02
  9.750000E-02   3.750000E-02   3.000044E+02
  9.750000E-02   4.250000E-02   2.999971E+02
  9.750000E-02   4.750000E-02   3.000122E+02
  9.750000E-02   5.250000E-02   3.000120E+02
  9.750000E-02   5.750000E-02   2.999858E+02
  9.750000E-02   6.250000E-02   2.999822E+02
  9.750000E-02   6.750000E-02   2.999822E+02
  9.750000E-02   7.250000E-02   3.000094E+02
  9.750000E-02   7.750000E-02   2.999944E+02
  9.750000E-02   8.250000E-02   2.999908E+02
  9.750000E-02   8.750000E-02   3.000030E+02
  9.750000E-02   9.250000E-02   2.999790E+02
  9.750000E-02   9.750000E-02   2.999969E+02
  9.750000E-02   1.025000E-01   3.000016E+02
  9.750000E-02   1.075000E-01   2.999929E+02
  9.750000E-02   1.125000E-01   2.999918E+02
  9.750000E-02   1.175000E-01   2.999859E+02
  1.025000E-01   2.500000E-03   2.999997E+02
  1.025000E-01   7.500000E-03   3.000005E+02
  1.025000E-01   1.250000E-02   2.999877E+02
  1.025000E-01   1.750000E-02   3.000146E+02
  1.025000E-01   2.250000E-02   3.000034E+02
  1.025000E-01   2.750000E-02   3.000176E+02
  1.025000E-01   3.250000E-02   3.000013E+02
  1.025000E-01   3.750000E-02   3.000110E+02
  1.025000E-01   4.250000E-02   2.999875E+02
  1.025000E-01   4.750000E-02   2.999980E+02
  1.025000E-01   5.250000E-02   3.000076E+02
  1.025000E-01   5.750000E-02   3.000037E+02
  1.025000E-01   6.250000E-02   3.000107E+02
  1.025000E-01   6.750000E-02   3.000009E+02
  1.025000E-01   7.250000E-02   2.999824E+02
  1.025000E-01   7.750000E-02   3.000076E+02
  1.025000E-01   8.250000E-02   3.000151E+02
  1.025000E-01   8.750000E-02   3.954804E-03
  1.025000E-01   9.250000E-02   2.999860E+02
  1.025000E-01   9.750000E-02   3.000118E+02
  1.025000E-01   1.025000E-01   2.999999E+02
  1.025000E-01   1.075000E-01   3.000035E+02
  1.025000E-01   1.125000E-01   3.000019E+02
  1.025000E-01   1.175000E-01   2.999951E+02
  1.075000E-01   2.500000E-03   3.000070E+02
  1.075000E-01   7.500000E-03   2.999879E+02
  1.075000E-01   1.250000E-02   2.999875E+02
  1.075000E-01   1.750000E-02   3.000053E+02
  1.075000E-01   2.250000E-02   2.999919E+02
  1.075000E-01   2.750000E-02   3.000083E+02
  1.075000E-01   3.250000E-02   3.000108E+02
  1.075000E-01   3.750000E-02   2.999969E+02
  1.075000E-01   4.250000E-02   2.999978E+02
  1.075000E-01   4.750000E-02   3.000056E+02
  1.075000E-01   5.250000E-02   2.999945E+02
  1.075000E-01   5.750000E-02   3.000179E+02
  1.075000E-01   6.250000E-02   2.999943E+02
  1.075000E-01   6.750000E-02   2.999982E+02
  1.075000E-01   7.250000E-02   2.999952E+02
  1.075000E-01   7.750000E-02   3.000084E+02
  1.075000E-01   8.250000E-02   2.999865E+02
  1.075000E-01   8.750000E-02   2.999855E+02
  1.075000E-01   9.250000E-02   3.000033E+02
  1.075000E-01   9.750000E-02   3.000034E+02
  1.075000E-01   1.025000E-01   3.000103E+02
  1.075000E-01   1.075000E-01   3.000221E+02
  1.075000E-01   1.125000E-01   3.000036E+02
  1.075000E-01   1.175000E-01   3.000134E+02
  1.125000E-01   2.500000E-03   3.000031E+02
  1.125000E-01   7.500000E-03   2.999999E+02
  1.125000E-01   1.250000E-02   3.000112E+02
  1.125000E-01   1.750000E-02   2.999883E+02
  1.125000E-01   2.250000E-02   3.000002E+02
  1.125000E-01   2.750000E-02   3.000111E+02
  1.125000E-01   3.250000E-02   2.999937E+02
  1.125000E-01   3.750000E-02   2.999959E+02
  1.125000E-01   4.250000E-02   3.000040E+02
  1.125000E-01   4.750000E-02   2.999887E+02
  1.125000E-01   5.250000E-02   2.999919E+02
  1.125000E-01   5.750000E-02   3.000053E+02
  1.125000E-01   6.250000E-02   3.000104E+02
  1.125000E-01   6.750000E-02   2.999966E+02
  1.125000E-01   7.250000E-02   2.999998E+02
  1.125000E-01   7.750000E-02   2.999993E+02
  1.125000E-01   8.250000E-02   2.999940E+02
  1.125000E-01   8.750000E-02   3.000024E+02
  1.125000E-01   9.250000E-02   3.000015E+02
  1.125000E-01   9.750000E-02   3.000167E+02
  1.125000E-01   1.025000E-01   2.999876E+02
  1.125000E-01   1.075000E-01   3.000060E+02
  1.125000E-01   1.125000E-01   3.000056E+02
  1.125000E-01   1.175000E-01   2.999916E+02
  1.175000E-01   2.500000E-03   2.999892E+02
  1.175000E-01   7.500000E-03   3.000080E+02
  1.175000E-01   1.250000E-02   3.000039E+02
  1.175000E-01   1.750000E-02   2.999945E+02
  1.175000E-01   2.250000E-02   3.000030E+02
  1.175000E-01   2.750000E-02   2.999918E+02
  1.175000E-01   3.250000E-02   2.999970E+02
  1.175000E-01   3.750000E-02   3.000048E+02
  1.175000E-01   4.250000E-02   2.999972E+02
  1.175000E-01   4.750000E-02   3.000040E+02
  1.175000E-01   5.250000E-02   3.000019E+02
  1.175000E-01   5.750000E-02   3.000051E+02
  1.175000E-01   6.250000E-02   3.000038E+02
  1.175000E-01   6.750000E-02   2.999935E+02
  1.175000E-01   7.250000E-02   3.000221E+02
  1.175000E-01   7.750000E-02   2.999971E+02
  1.175000E-01   8.250000E-02   2.999966E+02
  1.175000E-01   8.750000E-02   3.000039E+02
  1.175000E-01   9.250000E-02   3.000283E+02
  1.175000E-01   9.750000E-02   2.999981E+02
  1.175000E-01   1.025000E-01   3.000050E+02
  1.175000E-01   1.075000E-01   3.000031E+02
  1.175000E-01   1.125000E-01   2.999890E+02
  1.175000E-01   1.175000E-01   3.000037E+02
TITLE = vY-vT
Variables = "x [m]", "y [m]","Residuals [K]"
ZONE, i= 24, j= 24, f=point, STRANDID=  2,SOLUTIONTIME=  4.000000E-02
  2.500000E-03   2.500000E-03  -3.078021E+03
  2.500000E-03   7.500000E-03   6.725703E+03
  2.500000E-03   1.250000E-02  -8.151457E+03
  2.500000E-03   1.750000E-02   1.769838E+03
  2.500000E-03   2.250000E-02  -1.029312E+04
  2.500000E-03   2.750000E-02  -7.845262E+03
  2.500000E-03   3.250000E-02   7.082870E+03
  2.500000E-03   3.750000E-02  -5.627170E+03
  2.500000E-03   4.250000E-02   2.207411E+03
  2.500000E-03   4.750000E-02   4.329150E+02
  2.500000E-03   5.250000E-02  -2.744042E+02
  2.500000E-03   5.750000E-02   4.214698E+03
  2.500000E-03   6.250000E-02   5.816341E+03
  2.500000E-03   6.750000E-02  -1.762675E+04
  2.500000E-03   7.250000E-02   1.095404E+04
  2.500000E-03   7.750000E-02  -2.213993E+03
  2.500000E-03   8.250000E-02   6.300377E+03
  2.500000E-03   8.750000E-02  -2.443785E+04
  2.500000E-03   9.250000E-02   1.347952E+03
  2.500000E-03   9.750000E-02  -5.787046E+03
  2.500000E-03   1.025000E-01   5.974428E+03
  2.500000E-03   1.075000E-01   4.050148E+03
  2.500000E-03   1.125000E-01   6.929291E+03
  2.500000E-03   1.175000E-01  -3.399240E+03
  7.500000E-03   2.500000E-03   6.398351E+03
  7.500000E-03   7.500000E-03  -1.448416E+04
  7.500000E-03   1.250000E-02   1.109062E+04
  7.500000E-03   1.750000E-02  -9.107431E+03
  7.500000E-03   2.250000E-02   4.210146E+03
  7.500000E-03   2.750000E-02  -7.230507E+03
  7.500000E-03   3.250000E-02   7.759000E+03
  7.500000E-03   3.750000E-02   1.713115E+04
  7.500000E-03   4.250000E-02  -2.723551E+03
  7.500000E-03   4.750000E-02   1.076781E+03
  7.500000E-03   5.250000E-02   2.133565E+02
  7.500000E-03   5.750000E-02  -1.503265E+04
  7.500000E-03   6.250000E-02   5.486893E+03
  7.500000E-03   6.750000E-02   2.217095E+03
  7.500000E-03   7.250000E-02   7.884175E+03
  7.500000E-03   7.750000E-02  -4.861493E+03
  7.500000E-03   8.250000E-02   8.280301E+03
  7.500000E-03   8.750000E-02   1.507321E+04
  7.500000E-03   9.250000E-02   5.308029E+03
  7.500000E-03   9.750000E-02   5.113278E+03
  7.500000E-03   1.025000E-01   8.596406E+03
  7.500000E-03   1.075000E-01  -3.018996E+03
  7.500000E-03   1.125000E-01  -7.004618E+02
  7.500000E-03   1.175000E-01   8.475671E+03
  1.250000E-02   2.500000E-03  -4.142785E+03
  1.250000E-02   7.500000E-03   8.446655E+03
  1.250000E-02   1.250000E-02   1.462098E+03
  1.250000E-02   1.750000E-02  -5.483438E+03
  1.250000E-02   2.250000E-02  -3.823830E+03
  1.250000E-02   2.750000E-02  -2.076268E+04
  1.250000E-02   3.250000E-02   3.135008E+03
  1.250000E-02   3.750000E-02  -6.302611E+03
  1.250000E-02   4.250000E-02  -5.247644E+03
  1.250000E-02   4.750000E-02  -3.720510E+03
  1.250000E-02   5.250000E-02   3.862061E+03
  1.250000E-02   5.750000E-02  -1.190188E+04
  1.250000E-02   6.250000E-02   1.609272E+04
  1.250000E-02   6.750000E-02   4.087508E+03
  1.250000E-02   7.250000E-02  -1.095967E+04
  1.250000E-02   7.750000E-02  -6.619690E+03
  1.250000E-02   8.250000E-02   1.782567E+04
  1.250000E-02   8.750000E-02  -1.552193E+04
  1.250000E-02   9.250000E-02   1.002461E+04
  1.250000E-02   9.750000E-02  -9.415525E+03
  1.250000E-02   1.025000E-01   4.276122E+03
  1.250000E-02   1.075000E-01  -8.049788E+03
  1.250000E-02   1.125000E-01   4.858843E+03
  1.250000E-02   1.175000E-01  -1.323759E+03
  1.750000E-02   2.500000E-03   1.149586E+04
  1.750000E-02   7.500000E-03  -1.316221E+03
  1.750000E-02   1.250000E-02   1.374553E+03
  1.750000E-02   1.750000E-02  -1.075930E+04
  1.750000E-02   2.250000E-02   1.013489E+04
  1.750000E-02   2.750000E-02   8.707657E+03
  1.750000E-02   3.250000E-02  -4.573262E+03
  1.750000E-02   3.750000E-02   6.266271E+03
  1.750000E-02   4.250000E-02  -6.639335E+03
  1.750000E-02   4.750000E-02  -1.853714E+03
  1.750000E-02   5.250000E-02   2.060786E+02
  1.750000E-02   5.750000E-02  -1.219648E+04